# vtk DataFile Version 3.0
vtk output
ASCII
DATASET POLYDATA
POINTS 776 float
-194.124 -300.863 96.676 -194.048 -300.95 96.8183 -193.977 -301.014 96.9599 
-193.906 -301.039 97.1313 -193.833 -301.107 97.2761 -193.761 -301.184 97.4136 
-193.69 -301.223 97.5749 -193.62 -301.227 97.7577 -193.548 -301.279 97.913 
-193.476 -301.338 98.0628 -193.404 -301.384 98.2204 -193.333 -301.426 98.3799 
-193.262 -301.467 98.539 -193.2 -301.471 98.7011 -193.147 -301.433 98.8695 
-193.061 -301.522 99.0335 -192.979 -301.611 99.1873 -192.909 -301.649 99.3475 
-192.839 -301.68 99.512 -192.762 -301.746 99.6692 -192.7 -301.742 99.8358 
-192.63 -301.765 100.007 -192.549 -301.842 100.168 -192.479 -301.865 100.336 
-192.408 -301.904 100.498 -192.346 -301.912 100.656 -192.278 -301.881 100.859 
-192.206 -301.935 101.012 -192.109 -302.077 101.17 -192.039 -302.169 101.288 
-191.968 -302.219 101.443 -191.896 -302.266 101.601 -191.822 -302.33 101.753 
-191.747 -302.39 101.908 -191.676 -302.424 102.074 -191.607 -302.45 102.239 
-191.531 -302.518 102.39 -191.462 -302.547 102.554 -191.389 -302.597 102.713 
-191.317 -302.633 102.878 -191.249 -302.653 103.046 -191.178 -302.689 103.209 
-191.107 -302.705 103.385 -191.033 -302.773 103.532 -190.958 -302.866 103.666 
-190.873 -302.953 103.83 -190.8 -303.02 103.978 -190.727 -303.073 104.132 
-190.659 -303.099 104.295 -190.595 -303.105 104.461 -190.53 -303.121 104.622 
-190.46 -303.165 104.779 -190.383 -303.233 104.935 -190.3 -303.317 105.094 
-190.227 -303.365 105.253 -190.174 -303.332 105.42 -190.087 -303.429 105.581 
-189.993 -303.598 105.709 -189.919 -303.652 105.867 -189.846 -303.713 106.019 
-189.773 -303.757 106.183 -189.711 -303.756 106.348 -189.643 -303.759 106.525 
-189.571 -303.806 106.682 -189.484 -303.91 106.84 -189.412 -303.971 106.988 
-189.341 -304.012 107.148 -189.276 -304.03 107.309 -189.207 -304.051 107.478 
-189.133 -304.094 107.642 -189.063 -304.127 107.806 -188.998 -304.126 107.98 
-188.931 -304.127 108.157 -188.861 -304.156 108.323 -188.788 -304.207 108.48 
-188.718 -304.243 108.642 -188.65 -304.246 108.818 -188.594 -304.185 109.012 
-188.523 -304.196 109.191 -188.45 -304.273 109.331 -188.376 -304.341 109.479 
-188.302 -304.408 109.629 -188.219 -304.492 109.79 -188.147 -304.544 109.944 
-188.078 -304.574 110.104 -188.008 -304.596 110.277 -187.937 -304.628 110.442 
-187.87 -304.639 110.612 -187.802 -304.662 110.777 -187.737 -304.671 110.942 
-187.678 -304.66 111.107 -187.597 -304.74 111.266 -187.515 -304.829 111.421 
-187.446 -304.857 111.584 -187.374 -304.898 111.745 -187.296 -304.976 111.899 
-187.221 -305.042 112.051 -187.142 -305.131 112.197 -187.066 -305.207 112.345 
-186.992 -305.259 112.503 -186.92 -305.305 112.665 -186.847 -305.354 112.823 
-186.772 -305.424 112.971 -186.701 -305.456 113.136 -186.629 -305.503 113.296 
-186.558 -305.538 113.459 -186.488 -305.559 113.629 -186.419 -305.578 113.801 
-186.348 -305.615 113.963 -186.276 -305.659 114.122 -186.205 -305.7 114.282 
-186.137 -305.717 114.452 -186.067 -305.748 114.617 -185.997 -305.778 114.779 
-185.927 -305.811 114.943 -185.858 -305.837 115.107 -185.786 -305.879 115.269 
-185.709 -305.95 115.422 -185.634 -306.017 115.574 -185.564 -306.053 115.736 
-185.493 -306.092 115.897 -185.42 -306.142 116.055 -185.344 -306.209 116.209 
-185.271 -306.26 116.368 -185.198 -306.309 116.526 -185.129 -306.335 116.691 
-185.057 -306.377 116.853 -184.981 -306.445 117.007 -184.914 -306.456 117.175 
-184.845 -306.483 117.341 -184.773 -306.519 117.506 -184.701 -306.558 117.668 
-184.629 -306.605 117.828 -184.558 -306.637 117.992 -184.487 -306.672 118.156 
-184.417 -306.702 118.322 -184.351 -306.717 118.488 -184.279 -306.756 118.649 
-184.206 -306.809 118.806 -184.134 -306.853 118.967 -184.065 -306.869 119.138 
-183.994 -306.907 119.3 -183.924 -306.938 119.464 -183.853 -306.979 119.625 
-183.781 -307.023 119.785 -183.708 -307.068 119.946 -183.633 -307.133 120.098 
-183.559 -307.188 120.256 -183.489 -307.219 120.422 -183.418 -307.252 120.586 
-183.346 -307.29 120.749 -183.275 -307.327 120.912 -183.202 -307.374 121.072 
-183.131 -307.412 121.235 -183.06 -307.449 121.397 -182.988 -307.491 121.559 
-182.917 -307.525 121.722 -182.846 -307.564 121.884 -182.774 -307.608 122.044 
-182.704 -307.641 122.207 -182.633 -307.68 122.369 -182.561 -307.723 122.529 
-182.488 -307.768 122.689 -182.416 -307.813 122.849 -182.345 -307.851 123.011 
-182.275 -307.883 123.175 -182.201 -307.94 123.331 -182.129 -307.985 123.49 
-182.057 -308.025 123.652 -181.984 -308.076 123.81 -181.914 -308.109 123.974 
-181.842 -308.155 124.133 -181.768 -308.213 124.288 -181.693 -308.277 124.441 
-181.618 -308.328 124.605 -181.545 -308.376 124.763 -181.474 -308.414 124.926 
-181.401 -308.461 125.085 -181.33 -308.502 125.245 -181.261 -308.523 125.414 
-181.191 -308.55 125.58 -181.12 -308.586 125.743 -181.049 -308.626 125.904 
-180.978 -308.667 126.065 -180.906 -308.709 126.226 -180.835 -308.743 126.389 
-180.765 -308.775 126.553 -180.693 -308.821 126.713 -180.621 -308.861 126.874 
-180.547 -308.918 127.03 -180.473 -308.972 127.188 -180.4 -309.026 127.344 
-180.325 -309.087 127.5 -180.253 -309.136 127.658 -180.181 -309.176 127.819 
-180.109 -309.222 127.978 -180.037 -309.267 128.138 -179.965 -309.311 128.299 
-179.892 -309.358 128.458 -179.82 -309.401 128.619 -179.749 -309.438 128.781 
-179.677 -309.481 128.942 -179.605 -309.527 129.102 -179.533 -309.57 129.263 
-179.462 -309.603 129.426 -179.391 -309.643 129.588 -179.317 -309.695 129.746 
-179.244 -309.745 129.905 -179.175 -309.773 130.07 -179.104 -309.808 130.233 
-179.032 -309.851 130.395 -178.958 -309.901 130.553 -178.888 -309.937 130.716 
-178.817 -309.97 130.88 -178.746 -310.008 131.042 -178.677 -310.034 131.208 
-178.605 -310.069 131.373 -178.532 -310.115 131.534 -178.462 -310.149 131.697 
-178.391 -310.184 131.859 -178.319 -310.228 132.02 -178.247 -310.275 132.179 
-178.174 -310.323 132.338 -178.102 -310.371 132.495 -178.03 -310.406 132.663 
-177.958 -310.459 132.816 -177.882 -310.525 132.97 -177.812 -310.558 133.134 
-177.741 -310.594 133.296 -177.67 -310.631 133.459 -177.594 -310.699 133.611 
-177.525 -310.725 133.776 -177.458 -310.744 133.943 -177.385 -310.77 134.117 
-177.313 -310.813 134.278 -177.241 -310.857 134.438 -177.171 -310.894 134.599 
-177.098 -310.944 134.756 -177.026 -310.991 134.913 -176.953 -311.044 135.071 
-176.878 -311.104 135.226 -176.808 -311.139 135.388 -176.736 -311.178 135.55 
-176.667 -311.203 135.717 -176.595 -311.235 135.885 -176.524 -311.274 136.047 
-176.453 -311.315 136.207 -176.383 -311.343 136.372 -176.312 -311.379 136.536 
-176.24 -311.419 136.698 -176.169 -311.46 136.859 -176.098 -311.499 137.02 
-176.026 -311.541 137.18 -175.955 -311.581 137.341 -175.882 -311.635 137.498 
-175.809 -311.662 137.672 -175.76 -311.608 137.841 -175.729 -311.438 138.043 
-175.717 -311.376 138.119 -175.684 -311.322 138.247 -175.651 -311.287 138.36 
-175.623 -311.236 138.47 -175.613 -311.13 138.572 -175.601 -311.074 138.643 
-175.58 -310.976 138.771 -175.532 -310.846 138.991 -175.537 -310.684 139.092 
-175.57 -310.509 139.129 -175.594 -310.339 139.188 -175.623 -310.166 139.233 
-175.645 -309.997 139.294 -175.655 -309.837 139.385 -175.671 -309.669 139.462 
-175.698 -309.497 139.511 -175.724 -309.325 139.565 -175.746 -309.155 139.627 
-175.771 -308.985 139.682 -175.798 -308.813 139.733 -175.824 -308.642 139.786 
-175.846 -308.474 139.849 -175.871 -308.304 139.903 -175.9 -308.131 139.951 
-175.918 -307.964 140.021 -175.944 -307.793 140.075 -175.972 -307.619 140.122 
-175.992 -307.451 140.19 -176.012 -307.284 140.257 -176.036 -307.114 140.314 
-176.06 -306.944 140.371 -176.085 -306.773 140.427 -176.117 -306.598 140.466 
-176.145 -306.425 140.516 -176.164 -306.258 140.584 -176.188 -306.088 140.642 
-176.212 -305.917 140.699 -176.238 -305.746 140.752 -176.264 -305.575 140.805 
-176.298 -305.4 140.841 -176.326 -305.226 140.889 -176.346 -305.059 140.956 
-176.372 -304.888 141.008 -176.398 -304.716 141.063 -176.417 -304.549 141.132 
-176.432 -304.384 141.207 -176.46 -304.212 141.257 -176.495 -304.035 141.29 
-176.524 -303.862 141.336 -176.556 -303.688 141.377 -176.58 -303.519 141.433 
-176.597 -303.35 141.508 -176.617 -303.183 141.574 -176.641 -303.013 141.631 
-176.664 -302.843 141.691 -176.685 -302.675 141.756 -176.71 -302.504 141.81 
-176.736 -302.333 141.865 -176.756 -302.165 141.932 -176.781 -301.994 141.985 
-176.807 -301.824 142.04 -176.828 -301.655 142.104 -176.852 -301.485 142.16 
-176.885 -301.31 142.198 -176.917 -301.136 142.237 -176.944 -300.963 142.288 
-176.979 -300.787 142.321 -177.016 -300.61 142.351 -177.04 -300.44 142.408 
-177.063 -300.27 142.468 -177.09 -300.098 142.519 -177.117 -299.926 142.57 
-177.142 -299.755 142.623 -177.171 -299.583 142.671 -177.197 -299.412 142.724 
-177.217 -299.245 142.79 -177.236 -299.078 142.857 -177.26 -298.909 142.916 
-177.276 -298.736 142.995 -177.285 -298.577 143.086 -177.307 -298.408 143.147 
-177.334 -298.236 143.199 -177.35 -298.071 143.274 -177.375 -297.901 143.329 
-177.406 -297.726 143.37 -177.426 -297.559 143.437 -177.446 -297.391 143.504 
-177.479 -297.216 143.541 -177.512 -297.04 143.578 -177.537 -296.869 143.633 
-177.563 -296.698 143.687 -177.595 -296.524 143.727 -177.618 -296.354 143.786 
-177.638 -296.186 143.853 -177.666 -296.014 143.902 -177.69 -295.843 143.959 
-177.71 -295.676 144.027 -177.737 -295.504 144.076 -177.766 -295.331 144.122 
-177.791 -295.161 144.179 -177.819 -294.988 144.226 -177.851 -294.814 144.266 
-177.873 -294.645 144.329 -177.895 -294.476 144.39 -177.925 -294.303 144.435 
-177.949 -294.132 144.492 -177.966 -293.965 144.565 -177.993 -293.795 144.617 
-178.026 -293.619 144.652 -178.046 -293.451 144.721 -178.064 -293.284 144.791 
-178.092 -293.112 144.839 -178.119 -292.94 144.891 -178.143 -292.77 144.948 
-178.173 -292.598 144.992 -178.206 -292.417 145.033 -178.227 -292.253 145.095 
-178.246 -292.086 145.162 -178.275 -291.914 145.209 -178.299 -291.743 145.266 
-178.316 -291.576 145.34 -178.344 -291.404 145.389 -178.378 -291.229 145.424 
[...]
CELL_DATA 1
FIELD FieldData 1
vtkOriginalCellIds 1 1 vtkIdType
0 
POINT_DATA 776
SCALARS scalars double
LOOKUP_TABLE default
4.04779 4.39855 4.60881 4.83781 5.1053 5.25624 5.35305 5.58835 5.88401 
6.03733 6.09769 6.1281 6.13191 6.0904 5.7635 5.45804 5.33076 5.23053 
5.03863 4.95 4.8791 4.65964 4.69119 4.7876 4.82628 4.94492 5.2954 
5.65232 5.84453 5.96538 6.09802 6.24521 6.35778 6.36946 6.39019 6.25777 
6.14276 6.2954 6.49844 6.61755 6.58684 6.40739 6.47673 6.80454 6.90212 
6.95404 7.05035 7.0656 6.96761 6.85028 6.62747 6.3764 6.12676 5.88408 
5.78721 5.58975 5.20471 5.18762 5.19543 5.20747 5.22423 5.32258 5.52249 
5.74891 5.86319 5.92646 5.98858 6.05503 6.18407 6.25714 6.20173 6.29153 
6.43067 6.56959 6.69446 6.81908 6.91732 7.20631 7.61084 7.86661 8.0583 
8.23897 8.35346 8.43293 8.44751 8.40216 8.3208 8.24468 8.0754 7.90563 
7.60818 7.25253 7.04222 6.85632 6.57928 6.39749 6.28043 6.22204 6.22256 
6.16774 6.20838 6.33421 6.45659 6.66074 6.81877 6.90043 7.07864 7.30124 
7.49866 7.67596 7.80208 7.91233 8.04465 8.13437 8.1654 8.20715 8.25656 
8.18702 8.20229 8.15877 8.08652 7.9623 7.83778 7.75251 7.65927 7.56821 
7.42671 7.3029 7.24195 7.1051 7.04907 7.03334 7.03761 7.02885 7.05252 
7.08493 7.15476 7.24677 7.30734 7.38058 7.4794 7.51904 7.59594 7.71207 
7.818 7.9045 7.92456 7.94422 7.94725 7.9678 7.94656 7.94039 7.93976 
7.91337 7.88387 7.87641 7.84964 7.7969 7.76605 7.78193 7.79533 7.8313 
7.8103 7.79152 7.8272 7.87669 7.91579 7.92957 7.96586 8.03049 8.0884 
8.14564 8.20897 8.25479 8.28616 8.3245 8.37261 8.39065 8.37575 8.33337 
8.35542 8.34689 8.3094 8.30158 8.29677 8.31138 8.29555 8.26874 8.28662 
8.30916 8.28558 8.27276 8.29965 8.30441 8.28389 8.25342 8.21438 8.16426 
8.11294 8.07031 8.03544 7.99252 7.92155 7.87189 7.82838 7.76857 7.75323 
7.72064 7.6978 7.68678 7.67288 7.65906 7.6674 7.66377 7.64603 7.61936 
7.62547 7.59218 7.57739 7.5429 7.54151 7.49858 7.45126 7.43443 7.39686 
7.35459 7.32473 7.27881 7.23904 7.17805 7.12689 7.094 7.03591 6.97462 
6.91317 6.87067 6.82738 6.80506 6.78684 6.78453 6.80048 6.79164 6.75434 
6.74126 6.74092 6.74117 6.7254 6.75883 6.76731 6.75243 6.72368 6.71299 
6.702 6.70973 6.70896 6.79933 6.7763 6.56067 6.51458 6.39945 6.37879 
6.43738 6.50901 6.5542 6.73471 6.68552 6.61562 6.65034 6.651 6.66154 
6.67318 6.66936 6.69455 6.7077 6.737 6.77397 6.80766 6.84701 6.87521 
6.88288 6.9007 6.90804 6.93248 6.95095 6.94623 6.9376 6.94985 6.96739 
6.96872 6.97665 6.98711 6.99523 7.02038 7.03368 7.05245 7.06552 7.06561 
7.08141 7.10081 7.10277 7.0934 7.10057 7.12398 7.1394 7.15902 7.17012 
7.18712 7.21043 7.23377 7.27119 7.30757 7.34584 7.38769 7.41775 7.43641 
7.43701 7.45808 7.49336 7.52399 7.55676 7.58087 7.59344 7.59281 7.58907 
7.57492 7.6046 7.61824 7.62793 7.64745 7.63288 7.5915 7.60878 7.62776 
7.62619 7.62663 7.65132 7.69495 7.77251 7.82207 7.8677 7.94932 8.02275 
8.10116 8.18072 8.22692 8.25603 8.28001 8.32003 8.37539 8.39087 8.40339 
8.42438 8.43028 8.4202 8.40769 8.38768 8.35949 8.32728 8.31273 8.28448 
8.25939 8.22402 8.1906 8.17657 8.18162 8.1727 8.14555 8.13722 8.12574 
8.08934 8.05546 7.99928 7.95352 7.8894 7.82068 7.78217 7.73832 7.67934 
7.63903 7.61977 7.5888 7.56121 7.57071 7.59489 7.59246 7.57671 7.58683 
7.60608 7.60379 7.60466 7.62007 7.59305 7.55288 7.56 7.56468 7.53151 
7.50465 7.49779 7.47029 7.44529 7.42795 7.37684 7.3312 7.31646 7.31575 
7.2885 7.24579 7.21652 7.18192 7.13951 7.10665 7.09016 7.06942 7.06674 
7.09352 7.06652 7.03497 7.04897 7.05216 7.04043 7.01134 6.99169 6.98329 
6.9536 6.91113 6.87072 6.81152 6.72697 6.66677 6.61538 6.57031 6.52941 
6.49558 6.48516 6.49046 6.46176 6.43092 6.43142 6.41633 6.38843 6.37465 
6.48031 6.58731 6.38409 6.34217 6.23821 6.20326 6.21617 6.27571 6.29941 
6.50068 6.49602 6.42665 6.4445 6.4623 6.50348 6.51875 6.56949 6.61138 
6.6087 6.61949 6.66416 6.71199 6.72762 6.74257 6.76423 6.78919 6.8051 
6.81146 6.83034 6.85041 6.87619 6.92216 6.95034 6.96143 6.99803 7.01473 
7.01729 7.00095 6.98104 6.96785 6.95917 6.97028 6.96992 6.96154 6.94428 
6.95142 6.95094 6.9438 6.94535 6.94703 6.96249 6.96008 6.966 6.94798 
6.92712 6.9359 6.94012 6.95165 6.961 6.96501 6.96718 6.96478 6.9549 
6.95607 6.94969 6.96053 6.9684 6.95358 6.92577 6.90703 6.9167 6.92974 
6.92663 6.93806 6.94188 6.9194 6.9004 6.86395 6.79467 6.74426 6.6732 
6.61565 6.58866 6.52533 6.44822 6.42963 6.40454 6.37 6.36967 6.35713 
6.35923 6.36467 6.34389 6.35624 6.34806 6.30589 6.29084 6.27546 6.22941 
6.18777 6.14022 6.09155 6.06262 5.99924 5.9394 5.9113 5.8755 5.82945 
5.77475 5.73594 5.70527 5.65554 5.59273 5.56297 5.52 5.46867 5.45447 
5.42417 5.38557 5.34128 5.29085 5.2623 5.23182 5.19226 5.16884 5.16375 
5.14629 5.12603 5.10548 5.08556 5.06536 5.03168 5.01504 5.00865 4.98514 
4.95606 4.95183 4.9366 4.92046 4.8743 4.84288 4.80229 4.76038 4.7209 
4.69982 4.66669 4.63555 4.62569 4.63167 4.62566 4.6493 4.66556 4.68616 
4.71743 4.74686 4.75137 4.77117 4.79004 4.7921 4.81636 4.81338 4.81286 
4.81862 4.81335 4.81067 4.79195 4.71646 4.67611 4.63896 4.58214 4.50949 
4.44522 4.37681 4.34199 4.35687 4.3816 4.3697 4.39427 4.50424 4.58825 
4.63737 4.69178 4.77476 4.86628 4.94371 5.03178 5.09425 5.14631 5.23363 
5.2978 5.35715 5.39619 5.42025 5.43911 5.48097 5.46366 5.42304 5.43033 
5.43072 5.42735 5.37198 5.30026 5.22597 5.14737 5.06728 5.00489 4.93714 
4.82896 4.75599 4.68777 4.60253 4.49531 4.43934 4.42982 4.42551 4.42353 
4.44402 4.47266 4.52245 4.59559 4.67095 4.74929 4.81341 4.88357 4.97416 
5.0414 5.12078 5.2134 5.29813 5.33545 5.34992 5.33249 5.329 5.35026 
5.37467 5.39409 5.34754 5.26755 5.20472 5.13944 5.06284 4.9434 4.82793 
4.74336 4.71703 4.72084 4.69155 4.69751 4.71724 4.7643 4.89559 5.06686 
5.18562 5.42913 5.69578 5.79703 5.91351 6.22293 6.70529 7.12544 7.34692 
7.47764 7.54833 7.49971 7.39024 7.3115 7.18535 6.9398 6.70389 6.51719 
6.43096 6.47916 6.52672 6.60342 6.75566 6.69858 6.90358 6.89217 6.8775 
6.87011 6.83457 6.75605 6.67201 6.59784 6.50831 6.5426 6.60946 6.69257 
6.78084 6.80653 6.81705 6.82644 6.81732 6.78535 6.76627 6.74887 6.84165 
7.00287 7.15902 7.2859 7.37509 7.45909 7.57119 7.69012 7.78237 7.82704 
7.84355 7.8439 7.82092 7.78284 7.71382 7.55675 7.31546 7.20256 7.08659 
6.95471 6.80063 6.62679 6.50794 6.43031 6.32829 6.21017 6.11056 6.01784 
5.91212 5.80917 5.68766 5.52497 5.34521 5.14489 4.92815 4.72338 4.54558 
4.34055 4.15401 
VECTORS vectors float
-0.0064832 0.155117 0.093467 -0.000447131 0.148062 0.104483 -0.00429482 0.152667 0.0975378 
-0.0042727 0.152642 0.0975785 -0.00359963 0.151863 0.0988126 -0.00907081 0.157854 0.0885396 
-0.0127301 0.161425 0.0813584 -0.00934559 0.158134 0.0880091 -0.00988671 0.15868 0.0869602 
-0.0152318 0.163662 0.0763024 -0.0198563 0.167346 0.066635 -0.0244122 0.170382 0.056687 
-0.032635 0.174247 0.0375805 -0.0409454 0.175752 0.0165564 -0.0410822 0.175753 0.0161939 
-0.0356526 0.175095 0.0301621 -0.0342662 0.174746 0.0335993 -0.0366059 0.175294 0.0277692 
-0.0345585 0.174826 0.0328789 -0.0330767 0.174391 0.036509 -0.036615 0.175296 0.0277463 
-0.0311675 0.173719 0.0411057 -0.022733 0.169334 0.0604041 -0.0226585 0.169285 0.0605676 
-0.0225277 0.1692 0.0608544 -0.0118473 0.160596 0.0831138 0.000675248 0.146648 0.106458 
0.00699827 0.138077 0.117154 0.0016099 0.145446 0.108085 -0.00877667 0.157551 0.089106 
-0.0151003 0.163548 0.0765713 -0.0155208 0.163909 0.0757107 -0.018439 0.16628 0.0696429 
-0.0237349 0.169969 0.0581934 -0.0309237 0.173624 0.0416863 -0.0323313 0.174144 0.0383143 
-0.0240808 0.170181 0.0574253 -0.0174559 0.165508 0.0717059 -0.0212063 0.168309 0.0637321 
-0.0286525 0.172646 0.0470279 -0.0323032 0.174134 0.038382 -0.0260914 0.171345 0.0529095 
-0.010487 0.159278 0.0857902 -0.00526339 0.153767 0.0957469 -0.0111452 0.159922 0.0844995 
-0.0176617 0.165672 0.0712755 -0.0205947 0.167879 0.0650519 -0.0244035 0.170376 0.0567065 
-0.0283103 0.172484 0.0478222 -0.0322635 0.17412 0.0384779 -0.0355353 0.175069 0.0304549 
-0.0378773 0.175506 0.0245397 -0.0388289 0.175623 0.0220927 -0.0343385 0.174766 0.0334212 
-0.0346638 0.174853 0.0326187 -0.0394576 0.175681 0.0204619 -0.0332059 0.174432 0.0361948 
-0.0268632 0.171759 0.0511525 -0.0271186 0.171892 0.0505681 -0.0253762 0.170945 0.0545259 
-0.0222599 0.169023 0.0614405 -0.0168775 0.165041 0.0729107 -0.0112307 0.160004 0.0843314 
-0.00937455 0.158163 0.0879531 -0.0156408 0.164012 0.0754645 -0.0197337 0.167256 0.066897 
-0.0223838 0.169105 0.0611696 -0.0210647 0.16821 0.0640384 -0.0210066 0.16817 0.0641639 
-0.0255055 0.171019 0.0542344 -0.0250569 0.170762 0.055244 -0.0204578 0.167782 0.0653462 
-0.0199201 0.167393 0.0664988 -0.0207171 0.167966 0.0647884 -0.0220951 0.168914 0.0618005 
-0.0247355 0.170574 0.0559645 -0.0220878 0.168909 0.0618165 -0.0114119 0.160179 0.0839743 
-0.00732762 0.156029 0.0918726 -0.00911148 0.157895 0.0884612 -0.0119071 0.160653 0.0829955 
-0.0148967 0.163372 0.0769866 -0.0189125 0.166643 0.0686426 -0.0219511 0.168817 0.0621146 
-0.0257812 0.171174 0.0536119 -0.0289148 0.172768 0.046417 -0.0313621 0.173793 0.0406413 
-0.0353512 0.175025 0.0309136 -0.037034 0.175373 0.0266867 -0.0388388 0.175624 0.0220672 
-0.040954 0.175752 0.0165336 -0.0382055 0.175551 0.0236985 -0.0365667 0.175287 0.0278681 
-0.0378173 0.175497 0.0246931 -0.0367417 0.17532 0.0274265 -0.0331746 0.174422 0.0362709 
-0.0275502 0.172111 0.0495773 -0.0228864 0.169433 0.0600669 -0.0240174 0.170143 0.0575664 
-0.0228714 0.169423 0.0601 -0.0174423 0.165497 0.0717344 -0.0151959 0.163631 0.0763758 
-0.0158299 0.164172 0.0750759 -0.0160539 0.16436 0.0746147 -0.0186361 0.166432 0.0692272 
-0.019524 0.167101 0.0673439 -0.0170811 0.165206 0.0724872 -0.0162934 0.16456 0.0741206 
-0.0173491 0.165422 0.0719289 -0.0205179 0.167824 0.0652171 -0.0229083 0.169447 0.0600188 
-0.0222207 0.168997 0.0615263 -0.0227075 0.169317 0.06046 -0.0250468 0.170756 0.0552665 
-0.0255847 0.171063 0.0540558 -0.0228335 0.169399 0.0601833 -0.0233552 0.169732 0.0590338 
-0.0245935 0.17049 0.056282 -0.0256483 0.171099 0.0539123 -0.0266909 0.171668 0.0515458 
-0.027279 0.171974 0.0502003 -0.0281988 0.172431 0.0480805 -0.0279914 0.17233 0.0485603 
-0.0274451 0.172058 0.049819 -0.0282171 0.17244 0.0480382 -0.0293941 0.172984 0.0452971 
-0.0281042 0.172385 0.0482994 -0.0281346 0.1724 0.0482292 -0.030381 0.173406 0.0429737 
-0.0285531 0.172599 0.047259 -0.0260722 0.171335 0.0529529 -0.0255382 0.171037 0.0541608 
-0.0252673 0.170883 0.0547711 -0.0250647 0.170766 0.0552265 -0.0242631 0.170292 0.0570195 
-0.0238542 0.170043 0.0579287 -0.0222973 0.169048 0.0613589 -0.0215502 0.168545 0.0629868 
-0.0213815 0.16843 0.0633527 -0.0221829 0.168972 0.0616089 -0.0230464 0.169536 0.0597148 
-0.0218703 0.168763 0.0622906 -0.0198655 0.167353 0.0666155 -0.0191029 0.166787 0.0682391 
-0.0193733 0.166989 0.0676647 -0.0203348 0.167693 0.0656105 -0.0213275 0.168392 0.0634698 
-0.0227896 0.16937 0.0602798 -0.0236713 0.16993 0.0583344 -0.024267 0.170294 0.0570108 
-0.0253365 0.170923 0.0546152 -0.0258253 0.171198 0.0535121 -0.026879 0.171767 0.0511163 
-0.0275109 0.172092 0.0496677 -0.0271872 0.171927 0.0504109 -0.0276951 0.172184 0.0492438 
-0.0284142 0.172534 0.0475815 -0.0277117 0.172192 0.0492055 -0.0269881 0.171824 0.0508669 
-0.0263347 0.171477 0.0523569 -0.0247457 0.17058 0.0559415 -0.0243099 0.17032 0.0569151 
-0.0247698 0.170594 0.0558877 -0.0243887 0.170368 0.0567395 -0.0237997 0.170009 0.0580498 
-0.0231651 0.169611 0.0594533 -0.0225297 0.169201 0.0608501 -0.0224393 0.169142 0.0610481 
-0.0223771 0.169101 0.0611841 -0.0220685 0.168896 0.0618586 -0.0220309 0.168871 0.0619407 
-0.0213059 0.168378 0.0635164 -0.0208724 0.168075 0.0644537 -0.022024 0.168866 0.0619557 
-0.0236013 0.169886 0.0584894 -0.0239456 0.170099 0.0577258 -0.0236983 0.169946 0.0582746 
-0.0238395 0.170034 0.0579614 -0.0249376 0.170692 0.0555117 -0.0262452 0.171429 0.0525604 
-0.026442 0.171535 0.0521129 -0.0267952 0.171723 0.0513079 -0.0260036 0.171297 0.0531085 
-0.0253029 0.170903 0.054691 -0.0255351 0.171035 0.0541678 -0.0252833 0.170892 0.0547351 
-0.0248244 0.170626 0.0557653 -0.0241847 0.170245 0.0571941 -0.0234905 0.169817 0.0587347 
-0.0243536 0.170347 0.0568177 -0.0251861 0.170836 0.0549535 -0.0242624 0.170292 0.057021 
-0.024577 0.17048 0.056319 -0.0255007 0.171016 0.0542453 -0.0259237 0.171253 0.0532894 
-0.0266666 0.171655 0.0516013 -0.026999 0.17183 0.0508419 -0.0268081 0.17173 0.0512783 
-0.0269204 0.171789 0.0510216 -0.0270345 0.171848 0.0507608 -0.026936 0.171797 0.050986 
-0.0271316 0.171898 0.0505383 -0.0270117 0.171836 0.0508129 -0.0268511 0.171752 0.0511802 
-0.0274588 0.172065 0.0497874 -0.027145 0.171905 0.0505076 -0.0263052 0.171461 0.052424 
-0.0261277 0.171365 0.0528271 -0.0263775 0.171501 0.0522596 -0.026263 0.171439 0.0525198 
-0.0254884 0.171009 0.054273 -0.0250783 0.170774 0.0551959 -0.0254881 0.171009 0.0542737 
-0.0256778 0.171116 0.0538456 -0.0256969 0.171126 0.0538025 -0.0260035 0.171297 0.0531086 
-0.0263356 0.171478 0.052355 -0.0265466 0.171591 0.0518749 -0.0263307 0.171475 0.0523662 
-0.0259084 0.171244 0.0533242 -0.0260208 0.171306 0.0530694 -0.026089 0.171344 0.0529149 
-0.0256013 0.171073 0.0540182 -0.0262797 0.171448 0.0524819 -0.0273105 0.17199 0.0501281 
-0.0258926 0.171235 0.0533598 -0.0255476 0.171042 0.0541396 -0.0259153 0.171248 0.0533085 
-0.0259805 0.171284 0.0531608 -0.0260848 0.171341 0.0529245 -0.0263996 0.171512 0.0522093 
-0.0276326 0.172153 0.0493878 -0.0285166 0.172582 0.0473437 -0.029018 0.172815 0.0461763 
-0.0286254 0.172633 0.047091 -0.0282836 0.172472 0.0478842 -0.0271964 0.171932 0.0503898 
-0.0261058 0.171353 0.0528767 -0.0260268 0.17131 0.053056 -0.0262431 0.171428 0.0525651 
-0.0266774 0.171661 0.0515766 -0.0272237 0.171946 0.0503272 -0.0270653 0.171864 0.0506903 
-0.0266299 0.171636 0.0516849 -0.0264483 0.171539 0.0520985 -0.0268967 0.171776 0.0510758 
-0.0259829 0.171285 0.0531553 -0.0255046 0.171018 0.0542365 -0.026399 0.171512 0.0522107 
-0.0266691 0.171656 0.0515956 -0.0260803 0.171339 0.0529346 -0.0250077 0.170733 0.0553544 
-0.0241825 0.170243 0.0571991 -0.0233949 0.169757 0.0589461 -0.0229 0.169442 0.0600371 
-0.0347485 0.174876 0.0324094 -0.0480279 0.17471 -0.00301991 -0.0565361 0.16967 -0.0292407 
-0.0604378 0.165434 -0.0426388 -0.0645485 0.159038 -0.058134 -0.0683485 0.15046 -0.0743613 
-0.0714856 0.139992 -0.0901738 -0.0737252 0.128562 -0.104287 -0.0749865 0.118363 -0.114919 
-0.0757544 0.107244 -0.124897 -0.0748736 0.0687723 -0.150012 -0.0715945 0.0404957 -0.161473 
-0.0716709 0.0410103 -0.161309 -0.0718732 0.0423908 -0.160862 -0.072031 0.0434893 -0.160498 
-0.0721897 0.0446132 -0.160117 -0.0722999 0.0454061 -0.159845 -0.0721259 0.0441589 -0.160272 
-0.071991 0.0432091 -0.160591 -0.0721745 0.0445048 -0.160154 -0.0723032 0.0454299 -0.159836 
-0.0722509 0.0450523 -0.159967 -0.072162 0.0444159 -0.160185 -0.0720029 0.0432917 -0.160564 
-0.07183 0.0420934 -0.160959 -0.0716131 0.040621 -0.161434 -0.0716507 0.0408739 -0.161353 
-0.0717444 0.0415086 -0.161149 -0.0716771 0.0410518 -0.161296 -0.0718533 0.042254 -0.160907 
-0.0720779 0.0438194 -0.160387 -0.0721533 0.0443535 -0.160206 -0.0719924 0.0432185 -0.160588 
-0.0719532 0.0429455 -0.160679 -0.0720937 0.0439307 -0.160349 -0.0720512 0.0436309 -0.16045 
-0.0721688 0.0444639 -0.160168 -0.0722332 0.0449248 -0.160011 -0.0721693 0.0444675 -0.160167 
-0.0722924 0.0453515 -0.159863 -0.072276 0.0452333 -0.159904 -0.0720248 0.0434458 -0.160512 
-0.0719281 0.0427711 -0.160737 -0.0720767 0.0438105 -0.16039 -0.0720368 0.04353 -0.160484 
-0.0719782 0.0431192 -0.160621 -0.0720408 0.0435579 -0.160475 -0.0720027 0.0432906 -0.160564 
-0.0719822 0.0431475 -0.160612 -0.0719291 0.0427781 -0.160734 -0.071942 0.0428674 -0.160705 
-0.0718497 0.0422291 -0.160915 -0.0718579 0.0422857 -0.160896 -0.0721976 0.0446693 -0.160098 
-0.0724098 0.0462073 -0.159565 -0.0722729 0.0452106 -0.159912 -0.0720941 0.0439339 -0.160348 
-0.0721603 0.0444037 -0.160189 -0.072139 0.0442516 -0.160241 -0.0720571 0.0436726 -0.160436 
-0.0722506 0.0450498 -0.159968 -0.0723464 0.0457434 -0.159727 -0.0721723 0.044489 -0.16016 
-0.072099 0.0439682 -0.160337 -0.0721076 0.0440292 -0.160316 -0.0717963 0.0418625 -0.161034 
-0.0714317 0.0394137 -0.161813 -0.0715072 0.0399136 -0.161657 -0.0716752 0.041039 -0.1613 
-0.0717961 0.0418609 -0.161035 -0.072041 0.0435594 -0.160474 -0.0722461 0.0450177 -0.159979 
-0.0721069 0.044024 -0.160318 -0.0718471 0.0422111 -0.160921 -0.0718186 0.0420153 -0.160985 
-0.0720675 0.0437457 -0.160412 -0.0723632 0.045866 -0.159685 -0.0726603 0.0480756 -0.158898 
-0.0729115 0.0500126 -0.158183 -0.0729014 0.0499337 -0.158213 -0.0729048 0.0499598 -0.158203 
-0.0729115 0.0500127 -0.158183 -0.0727706 0.0489179 -0.15859 -0.0724899 0.0467977 -0.159356 
-0.0725431 0.0471937 -0.159215 -0.0726464 0.0479698 -0.158936 -0.0724778 0.0467087 -0.159388 
-0.07237 0.0459158 -0.159667 -0.0722748 0.0452248 -0.159907 -0.0719921 0.0432163 -0.160589 
-0.0717573 0.0415965 -0.161121 -0.0718647 0.0423321 -0.160881 -0.0720956 0.0439445 -0.160345 
-0.0719998 0.0432706 -0.160571 -0.0717863 0.0417944 -0.161057 -0.0717822 0.0417661 -0.161066 
-0.0717773 0.0417328 -0.161077 -0.0717927 0.0418382 -0.161042 -0.0719233 0.0427378 -0.160748 
-0.0718922 0.0425224 -0.160819 -0.071755 0.0415805 -0.161126 -0.0717164 0.0413183 -0.161211 
-0.0716827 0.0410896 -0.161284 -0.0715422 0.0401462 -0.161584 -0.0714017 0.0392159 -0.161874 
-0.0713124 0.0386317 -0.162054 -0.071266 0.0383295 -0.162146 -0.0714019 0.0392171 -0.161874 
-0.0716118 0.0406122 -0.161436 -0.0715277 0.0400498 -0.161614 -0.0711981 0.0378901 -0.162279 
-0.0712076 0.0379512 -0.162261 -0.0713329 0.0387651 -0.162013 -0.0711717 0.0377197 -0.16233 
-0.0711366 0.0374943 -0.162398 -0.0711698 0.0377079 -0.162334 -0.0710298 0.0368128 -0.1626 
-0.0709059 0.0360299 -0.16283 -0.0708255 0.0355262 -0.162975 -0.0713081 0.0386035 -0.162062 
-0.0711169 0.0373682 -0.162435 -0.070859 0.0357356 -0.162915 -0.0710083 0.0366763 -0.162641 
-0.0711746 0.0377389 -0.162324 -0.0710407 0.0368821 -0.16258 -0.071061 0.0370111 -0.162542 
-0.0713031 0.0385705 -0.162072 -0.0714671 0.0396476 -0.16174 -0.0714386 0.0394591 -0.161799 
-0.0714361 0.0394424 -0.161804 -0.0713816 0.0390839 -0.161915 -0.0712928 0.0385035 -0.162093 
-0.0713999 0.0392045 -0.161878 -0.0716794 0.0410676 -0.161291 -0.0717498 0.0415448 -0.161137 
-0.0717432 0.0414999 -0.161152 -0.0717237 0.0413678 -0.161195 -0.0717021 0.0412209 -0.161242 
-0.071889 0.0424999 -0.160826 -0.071858 0.0422862 -0.160896 -0.0714203 0.0393386 -0.161836 
-0.0713317 0.0387572 -0.162015 -0.0715749 0.0403646 -0.161515 -0.0715008 0.0398713 -0.16167 
-0.0713047 0.0385811 -0.162069 -0.0711744 0.0377375 -0.162325 -0.0711856 0.0378092 -0.162303 
-0.0712201 0.038032 -0.162236 -0.0710386 0.0368684 -0.162584 -0.0709599 0.0363699 -0.16273 
-0.0709203 0.0361204 -0.162803 -0.070716 0.0348463 -0.163169 -0.070907 0.0360365 -0.162828 
-0.0713226 0.0386981 -0.162033 -0.0714053 0.0392395 -0.161867 -0.0711932 0.0378588 -0.162288 
-0.071346 0.0388507 -0.161987 -0.0715403 0.0401338 -0.161588 -0.0715793 0.0403943 -0.161505 
-0.0714123 0.0392858 -0.161852 -0.0713786 0.0390647 -0.161921 -0.0715989 0.0405255 -0.161464 
-0.0716656 0.0409741 -0.161321 -0.0716746 0.0410347 -0.161302 -0.0714077 0.0392555 -0.161862 
-0.0709046 0.0360216 -0.162832 -0.071005 0.0366554 -0.162647 -0.0711494 0.0375767 -0.162373 
-0.0710486 0.0369319 -0.162565 -0.0709796 0.0364942 -0.162694 -0.0708571 0.0357239 -0.162918 
-0.0704763 0.0333785 -0.163579 -0.0705253 0.0336763 -0.163497 -0.0708195 0.035489 -0.162986 
-0.0712283 0.0380852 -0.16222 -0.0712423 0.0381759 -0.162193 -0.0711745 0.0377377 -0.162325 
-0.0715252 0.0400332 -0.161619 -0.0717074 0.0412567 -0.16123 -0.071456 0.0395739 -0.161763 
-0.0712321 0.0381097 -0.162213 -0.071179 0.0377669 -0.162316 -0.0712179 0.0380178 -0.16224 
-0.0713294 0.038742 -0.16202 -0.0715568 0.040244 -0.161553 -0.0715639 0.0402914 -0.161538 
-0.0660405 0.0100183 -0.168456 -0.0542104 -0.0352279 -0.169291 -0.0498126 -0.0487785 -0.167268 
-0.0448126 -0.062794 -0.163976 -0.0390806 -0.0773737 -0.159139 -0.0331008 -0.0911615 -0.153079 