# vtk DataFile Version 3.0
vtk output
ASCII
DATASET POLYDATA
POINTS 698 float
-202.793 -299.802 86.3422 -202.694 -299.931 86.4935 -202.619 -299.951 86.6661 
-202.541 -300.036 86.7985 -202.465 -300.13 86.9185 -202.39 -300.162 87.0805 
-202.314 -300.163 87.2663 -202.237 -300.223 87.4142 -202.161 -300.283 87.558 
-202.085 -300.334 87.7091 -202.01 -300.381 87.8623 -201.938 -300.413 88.017 
-201.864 -300.389 88.2168 -201.796 -300.396 88.3777 -201.71 -300.482 88.5292 
-201.631 -300.538 88.6841 -201.556 -300.573 88.8458 -201.475 -300.637 88.9984 
-201.399 -300.68 89.1555 -201.335 -300.661 89.3269 -201.253 -300.734 89.4775 
-201.175 -300.802 89.6208 -201.098 -300.847 89.7789 -201.023 -300.879 89.9407 
-200.952 -300.892 90.1078 -200.876 -300.88 90.3032 -200.799 -300.941 90.4509 
-200.725 -301.029 90.57 -200.623 -301.171 90.7198 -200.547 -301.236 90.8632 
-200.469 -301.294 91.0143 -200.389 -301.366 91.1591 -200.308 -301.437 91.3087 
-200.231 -301.469 91.476 -200.157 -301.494 91.6395 -200.077 -301.569 91.7838 
-200.005 -301.587 91.9487 -199.927 -301.643 92.1037 -199.848 -301.685 92.2666 
-199.775 -301.705 92.4327 -199.699 -301.747 92.5902 -199.624 -301.777 92.7532 
-199.547 -301.834 92.9029 -199.467 -301.929 93.0346 -199.377 -302.006 93.2009 
-199.3 -302.062 93.3511 -199.223 -302.113 93.504 -199.15 -302.142 93.6636 
-199.074 -302.149 93.8476 -199.002 -302.162 94.0146 -198.927 -302.197 94.1752 
-198.866 -302.238 94.2972 -198.77 -302.355 94.4504 -198.694 -302.397 94.6084 
-198.623 -302.36 94.8099 -198.543 -302.465 94.9318 -198.436 -302.677 95.0443 
-198.362 -302.707 95.2073 -198.282 -302.78 95.3525 -198.204 -302.822 95.5147 
-198.135 -302.837 95.6736 -198.064 -302.834 95.8509 -197.988 -302.867 96.0147 
-197.908 -302.956 96.1497 -197.819 -303.041 96.3091 -197.749 -303.061 96.4656 
-197.677 -303.072 96.6364 -197.601 -303.109 96.7974 -197.523 -303.157 96.9565 
-197.449 -303.178 97.122 -197.377 -303.185 97.2951 -197.303 -303.21 97.4615 
-197.228 -303.241 97.6245 -197.152 -303.281 97.7831 -197.077 -303.314 97.9432 
-197.002 -303.337 98.1117 -196.942 -303.27 98.309 -196.865 -303.306 98.4737 
-196.786 -303.389 98.6085 -196.708 -303.447 98.7592 -196.63 -303.503 98.9122 
-196.55 -303.568 99.0623 -196.471 -303.624 99.2187 -196.393 -303.662 99.3827 
-196.318 -303.694 99.5468 -196.242 -303.73 99.709 -196.168 -303.754 99.8735 
-196.094 -303.781 100.035 -196.026 -303.788 100.199 -195.958 -303.795 100.361 
-195.877 -303.855 100.519 -195.793 -303.931 100.673 -195.718 -303.968 100.832 
-195.635 -304.037 100.986 -195.553 -304.107 101.138 -195.473 -304.179 101.286 
-195.39 -304.267 101.427 -195.311 -304.327 101.579 -195.234 -304.373 101.737 
-195.155 -304.426 101.895 -195.076 -304.483 102.048 -194.996 -304.56 102.191 
-194.92 -304.595 102.353 -194.843 -304.64 102.511 -194.77 -304.66 102.679 
-194.698 -304.649 102.862 -194.624 -304.664 103.035 -194.547 -304.71 103.191 
-194.471 -304.761 103.343 -194.4 -304.802 103.49 -194.326 -304.821 103.658 
-194.249 -304.865 103.816 -194.17 -304.914 103.976 -194.096 -304.94 104.141 
-194.022 -304.967 104.303 -193.945 -305.017 104.459 -193.862 -305.098 104.605 
-193.782 -305.167 104.755 -193.706 -305.205 104.913 -193.629 -305.251 105.07 
-193.553 -305.298 105.226 -193.474 -305.355 105.38 -193.396 -305.406 105.537 
-193.316 -305.469 105.689 -193.243 -305.493 105.853 -193.166 -305.53 106.014 
-193.086 -305.596 106.166 -193.012 -305.629 106.325 -192.937 -305.656 106.49 
-192.861 -305.686 106.656 -192.784 -305.732 106.815 -192.705 -305.789 106.968 
-192.629 -305.826 107.129 -192.554 -305.859 107.292 -192.481 -305.888 107.45 
-192.406 -305.918 107.613 -192.33 -305.959 107.772 -192.253 -306.007 107.929 
-192.175 -306.058 108.085 -192.1 -306.088 108.249 -192.023 -306.132 108.407 
-191.948 -306.166 108.567 -191.871 -306.212 108.724 -191.794 -306.258 108.882 
-191.717 -306.307 109.038 -191.637 -306.369 109.19 -191.557 -306.423 109.349 
-191.481 -306.463 109.509 -191.406 -306.499 109.668 -191.33 -306.534 109.831 
-191.253 -306.577 109.99 -191.175 -306.623 110.149 -191.099 -306.664 110.308 
-191.023 -306.703 110.467 -190.947 -306.744 110.627 -190.871 -306.78 110.788 
-190.794 -306.826 110.945 -190.718 -306.865 111.104 -190.643 -306.904 111.263 
-190.567 -306.945 111.421 -190.49 -306.989 111.579 -190.412 -307.039 111.736 
-190.335 -307.084 111.893 -190.26 -307.118 112.054 -190.185 -307.149 112.217 
-190.108 -307.198 112.373 -190.03 -307.25 112.528 -189.955 -307.28 112.692 
-189.879 -307.319 112.851 -189.804 -307.351 113.014 -189.727 -307.397 113.171 
-189.65 -307.445 113.327 -189.57 -307.511 113.477 -189.491 -307.567 113.631 
-189.414 -307.617 113.788 -189.336 -307.665 113.944 -189.258 -307.713 114.101 
-189.183 -307.744 114.265 -189.106 -307.785 114.425 -189.031 -307.819 114.587 
-188.954 -307.864 114.745 -188.878 -307.906 114.903 -188.801 -307.952 115.06 
-188.724 -307.997 115.218 -188.648 -308.036 115.378 -188.572 -308.074 115.538 
-188.495 -308.121 115.695 -188.419 -308.163 115.853 -188.34 -308.215 116.009 
-188.262 -308.268 116.164 -188.184 -308.326 116.316 -188.104 -308.385 116.471 
-188.027 -308.434 116.627 -187.95 -308.478 116.784 -187.872 -308.53 116.94 
-187.794 -308.582 117.095 -187.717 -308.632 117.251 -187.64 -308.674 117.41 
-187.563 -308.717 117.568 -187.486 -308.767 117.725 -187.408 -308.817 117.881 
-187.332 -308.858 118.04 -187.255 -308.901 118.198 -187.178 -308.945 118.356 
-187.103 -308.982 118.516 -187.027 -309.019 118.677 -186.95 -309.06 118.837 
-186.875 -309.096 118.997 -186.801 -309.127 119.159 -186.725 -309.151 119.328 
-186.649 -309.197 119.482 -186.572 -309.244 119.639 -186.496 -309.276 119.805 
-186.421 -309.306 119.967 -186.347 -309.333 120.131 -186.27 -309.375 120.29 
-186.192 -309.428 120.445 -186.115 -309.479 120.601 -186.038 -309.524 120.758 
-185.961 -309.564 120.917 -185.885 -309.61 121.075 -185.808 -309.656 121.232 
-185.729 -309.713 121.386 -185.652 -309.761 121.541 -185.573 -309.819 121.695 
-185.494 -309.875 121.849 -185.419 -309.912 122.009 -185.339 -309.974 122.162 
-185.262 -310.021 122.318 -185.187 -310.056 122.479 -185.114 -310.056 122.658 
-185.038 -310.093 122.818 -184.962 -310.136 122.977 -184.886 -310.171 123.137 
-184.81 -310.215 123.295 -184.736 -310.245 123.457 -184.659 -310.287 123.615 
-184.583 -310.329 123.774 -184.506 -310.374 123.931 -184.426 -310.444 124.08 
-184.349 -310.484 124.241 -184.273 -310.523 124.4 -184.198 -310.559 124.561 
-184.12 -310.608 124.717 -184.043 -310.652 124.876 -183.968 -310.689 125.035 
-183.892 -310.726 125.195 -183.816 -310.766 125.355 -183.739 -310.808 125.514 
-183.663 -310.852 125.672 -183.587 -310.895 125.829 -183.509 -310.942 125.986 
-183.434 -310.978 126.147 -183.356 -311.03 126.303 -183.278 -311.061 126.472 
-183.224 -311.015 126.639 -183.189 -310.849 126.842 -183.174 -310.791 126.92 
-183.14 -310.734 127.046 -183.107 -310.693 127.155 -183.07 -310.657 127.273 
-183.052 -310.561 127.384 -183.039 -310.504 127.456 -183.019 -310.401 127.579 
-182.972 -310.267 127.791 -182.966 -310.112 127.915 -182.982 -309.95 127.991 
-183.022 -309.77 128.02 -183.051 -309.599 128.071 -183.06 -309.437 128.162 
-183.082 -309.269 128.227 -183.105 -309.101 128.29 -183.126 -308.934 128.357 
-183.152 -308.764 128.414 -183.184 -308.589 128.459 -183.205 -308.422 128.526 
-183.225 -308.256 128.596 -183.255 -308.084 128.643 -183.283 -307.913 128.694 
-183.302 -307.747 128.765 -183.325 -307.579 128.829 -183.351 -307.409 128.886 
-183.374 -307.24 128.949 -183.396 -307.072 129.012 -183.424 -306.901 129.066 
-183.449 -306.731 129.125 -183.469 -306.564 129.195 -183.495 -306.394 129.251 
-183.529 -306.219 129.291 -183.56 -306.045 129.338 -183.587 -305.874 129.392 
-183.619 -305.704 129.435 -183.646 -305.533 129.49 -183.674 -305.362 129.542 
-183.709 -305.186 129.58 -183.74 -305.013 129.628 -183.763 -304.844 129.69 
-183.784 -304.677 129.758 -183.807 -304.508 129.821 -183.834 -304.337 129.875 
-183.856 -304.169 129.94 -183.881 -304 130 -183.904 -303.831 130.062 
-183.92 -303.667 130.139 -183.949 -303.495 130.191 -183.985 -303.319 130.225 
-184.01 -303.149 130.284 -184.029 -302.983 130.355 -184.051 -302.816 130.419 
-184.075 -302.648 130.481 -184.088 -302.483 130.566 -184.113 -302.313 130.625 
-184.14 -302.142 130.679 -184.162 -301.974 130.744 -184.181 -301.808 130.814 
-184.208 -301.637 130.871 -184.236 -301.466 130.923 -184.254 -301.3 130.996 
-184.275 -301.133 131.062 -184.303 -300.962 131.115 -184.327 -300.794 131.175 
-184.355 -300.622 131.229 -184.385 -300.449 131.278 -184.413 -300.277 131.33 
-184.437 -300.109 131.39 -184.464 -299.938 131.445 -184.489 -299.768 131.503 
-184.512 -299.6 131.566 -184.54 -299.429 131.618 -184.569 -299.259 131.67 
-184.594 -299.09 131.727 -184.618 -298.921 131.786 -184.643 -298.752 131.846 
-184.665 -298.578 131.914 -184.686 -298.412 131.981 -184.708 -298.245 132.047 
-184.73 -298.076 132.11 -184.752 -297.909 132.176 -184.773 -297.742 132.243 
-184.8 -297.571 132.297 -184.828 -297.4 132.35 -184.848 -297.233 132.418 
-184.872 -297.065 132.479 -184.901 -296.893 132.53 -184.918 -296.728 132.605 
-184.939 -296.561 132.672 -184.973 -296.386 132.712 -184.995 -296.218 132.776 
-185.018 -296.05 132.839 -185.047 -295.879 132.89 -185.073 -295.708 132.946 
-185.095 -295.54 133.011 -185.119 -295.371 133.072 -185.144 -295.201 133.13 
-185.165 -295.034 133.198 -185.187 -294.866 133.263 -185.221 -294.692 133.303 
-185.262 -294.513 133.328 -185.295 -294.337 133.371 -185.32 -294.167 133.43 
-185.345 -293.999 133.49 -185.346 -293.844 133.596 -185.362 -293.679 133.674 
-185.394 -293.506 133.718 -185.42 -293.336 133.776 -185.443 -293.167 133.837 
-185.477 -292.994 133.878 -185.506 -292.822 133.927 -185.527 -292.654 133.994 
-185.553 -292.485 134.052 -185.584 -292.312 134.096 -185.61 -292.142 134.154 
-185.637 -291.971 134.208 -185.68 -291.787 134.234 -185.715 -291.613 134.271 
-185.74 -291.443 134.33 -185.773 -291.269 134.372 -185.808 -291.095 134.41 
-185.84 -290.922 134.454 -185.862 -290.754 134.518 -185.896 -290.579 134.558 
[...]
CELL_DATA 1
FIELD FieldData 1
vtkOriginalCellIds 1 1 vtkIdType
0 
POINT_DATA 698
SCALARS scalars double
LOOKUP_TABLE default
4.41741 4.62853 4.85624 5.1182 5.27618 5.38301 5.63094 5.90448 6.05273 
6.14659 6.18614 6.17374 6.17177 5.86553 5.49751 5.34966 5.22765 5.02479 
4.93995 4.89772 4.6417 4.66208 4.72877 4.76732 4.90069 5.23342 5.60095 
5.79489 5.89369 6.03466 6.18103 6.28254 6.31087 6.33478 6.1936 6.07261 
6.24426 6.45648 6.587 6.5443 6.38172 6.49432 6.83659 6.92097 6.98334 
7.08673 7.10483 7.00717 6.9173 6.71154 6.41833 6.1188 5.85268 5.74622 
5.54338 5.12952 5.10153 5.10346 5.08427 5.11167 5.20328 5.36547 5.6074 
5.73689 5.79975 5.86109 5.99036 6.13932 6.2117 6.18831 6.33347 6.49439 
6.62669 6.76557 6.9017 7.00093 7.28228 7.69759 7.94361 8.09274 8.27835 
8.40643 8.47533 8.47898 8.41644 8.33767 8.23887 8.04945 7.88964 7.62566 
7.26993 7.02545 6.82372 6.56633 6.39446 6.26617 6.20948 6.20554 6.13714 
6.13596 6.2348 6.31691 6.47644 6.61768 6.69672 6.87104 7.07769 7.27162 
7.44883 7.59964 7.76915 7.92749 8.02997 8.0833 8.1688 8.2105 8.12897 
8.11459 8.05837 7.98673 7.87357 7.75146 7.6495 7.53414 7.44765 7.33171 
7.25426 7.18905 7.06283 7.02641 7.04793 7.06769 7.07003 7.12353 7.18573 
7.24911 7.33982 7.4111 7.47088 7.52537 7.5646 7.6485 7.75801 7.832 
7.90249 7.93412 7.94579 7.92099 7.93438 7.91751 7.89922 7.87124 7.8145 
7.78816 7.78718 7.74586 7.68617 7.68679 7.70189 7.69363 7.73941 7.73402 
7.72843 7.74371 7.79455 7.86812 7.87778 7.86617 7.91028 7.99968 8.05855 
8.10902 8.16832 8.21678 8.26434 8.31449 8.33213 8.32722 8.29029 8.27265 
8.26854 8.25395 8.23998 8.2042 8.19614 8.21143 8.19172 8.18509 8.20409 
8.21926 8.23284 8.26405 8.28606 8.26303 8.23716 8.19178 8.15744 8.13647 
8.08315 8.0476 8.02881 7.97736 7.92792 7.86991 7.81095 7.80317 7.78785 
7.73112 7.69501 7.67433 7.64728 7.6327 7.62161 7.61333 7.60289 7.58862 
7.55559 7.54581 7.51361 7.50837 7.4826 7.45478 7.40949 7.36961 7.354 
7.33234 7.28814 7.239 7.167 7.12367 7.07543 7.01167 6.95217 6.9098 
6.86442 6.82431 6.78815 6.76954 6.74363 6.72069 6.72552 6.71074 6.69442 
6.66138 6.64877 6.63859 6.67186 6.66712 6.65667 6.63533 6.63397 6.63095 
6.6435 6.65295 6.73947 6.70793 6.51652 6.486 6.3696 6.35902 6.39858 
6.45698 6.52102 6.7002 6.66375 6.55859 6.5617 6.56847 6.56329 6.54838 
6.56516 6.58329 6.59713 6.61678 6.65158 6.70337 6.74795 6.7653 6.77845 
6.7962 6.80141 6.82766 6.85784 6.85383 6.83882 6.83536 6.84928 6.83578 
6.83234 6.84832 6.86625 6.90158 6.93174 6.96217 7.00317 7.03275 7.04623 
7.05541 7.05961 7.04779 7.02416 7.01847 7.0177 7.00253 7.00409 7.04448 
7.05357 7.05185 7.08161 7.12132 7.15403 7.18399 7.20947 7.22998 7.25233 
7.26924 7.30672 7.35448 7.39759 7.43884 7.47809 7.50203 7.52059 7.54038 
7.57624 7.62044 7.65752 7.66108 7.64343 7.63151 7.63315 7.64179 7.66129 
7.69159 7.71916 7.76435 7.82189 7.85765 7.8973 7.95098 8.01708 8.08049 
8.12809 8.16485 8.18725 8.21805 8.25484 8.29827 8.32246 8.33673 8.34967 
8.33907 8.31138 8.28225 8.24957 8.21034 8.17289 8.14729 8.1171 8.08568 
8.06723 8.0577 8.04601 8.06345 8.08153 8.09173 8.09757 8.10073 8.07926 
8.03661 7.9852 7.9262 7.86668 7.82274 7.79228 7.73563 7.68384 7.64371 
7.5951 7.54725 7.53305 7.54263 7.53404 7.51561 7.52342 7.50429 7.47902 
7.4959 7.50793 7.49449 7.49393 7.49066 7.47723 7.46874 7.46126 7.44824 
7.43333 7.42126 7.41178 7.37167 7.31734 7.28324 7.24506 7.21239 7.18051 
7.13279 7.08945 7.05505 7.02833 7.00148 6.98033 6.94542 6.9325 6.94014 
6.92611 6.90384 6.90093 6.90118 6.90553 6.87987 6.85077 6.83499 6.81684 
6.78566 6.76226 6.71032 6.63613 6.59463 6.54935 6.49778 6.46304 6.4291 
6.41227 6.39204 6.35847 6.33605 6.35546 6.35445 6.34815 6.36169 6.44988 
6.4958 6.32222 6.26347 6.16632 6.16301 6.15496 6.224 6.2519 6.42968 
6.44039 6.36853 6.38993 6.39641 6.43256 6.44328 6.47309 6.50368 6.52228 
6.53929 6.58527 6.63106 6.672 6.69935 6.70654 6.72761 6.76386 6.75699 
6.76848 6.78999 6.81345 6.83778 6.85584 6.87126 6.89277 6.89896 6.91198 
6.91179 6.89023 6.89507 6.91238 6.89839 6.89324 6.89607 6.88693 6.88969 
6.89196 6.87156 6.89454 6.91538 6.94371 6.94386 6.95005 6.96649 6.96411 
6.97128 6.96176 6.95694 6.95112 6.94889 6.94329 6.92549 6.89001 6.87895 
6.87674 6.87746 6.85981 6.8629 6.85883 6.85194 6.86148 6.8716 6.86233 
6.84755 6.83576 6.8306 6.80294 6.77346 6.70699 6.65468 6.61277 6.56814 
6.52938 6.47508 6.43589 6.43464 6.40918 6.37662 6.38183 6.36928 6.34404 
6.3407 6.34218 6.33695 6.31937 6.29038 6.27069 6.25406 6.22056 6.18514 
6.13497 6.09652 6.05881 6.00995 5.94274 5.91323 5.86815 5.81405 5.76359 
5.71752 5.67785 5.635 5.57885 5.54399 5.48798 5.44149 5.39854 5.36988 
5.31753 5.26822 5.2302 5.21787 5.18945 5.14235 5.10508 5.10131 5.0881 
5.0663 5.03539 5.02229 5.0059 4.98368 4.9518 4.93721 4.91374 4.91195 
4.89676 4.86448 4.84809 4.80866 4.76866 4.73579 4.70763 4.68084 4.65374 
4.62539 4.6092 4.61503 4.60629 4.62179 4.66189 4.67672 4.68561 4.71465 
4.74208 4.73766 4.74217 4.75204 4.76209 4.77012 4.74995 4.75441 4.77158 
4.7778 4.78389 4.76608 4.70724 4.67663 4.64057 4.58719 4.53621 4.47112 
4.40882 4.37178 4.37126 4.39042 4.38355 4.40694 4.51347 4.59345 4.64365 
4.69208 4.76885 4.84613 4.9238 5.01349 5.0654 5.12396 5.19346 5.23906 
5.28966 5.31121 5.34073 5.36728 5.40576 5.39221 5.3705 5.39092 5.38814 
5.38222 5.35604 5.27041 5.19758 5.1277 5.06435 4.99432 4.91064 4.82021 
4.7552 4.67834 4.5899 4.49097 4.44893 4.43423 4.43045 4.43521 4.46305 
4.49652 4.54845 4.62113 4.69798 4.77475 4.83551 4.9 4.98723 5.04276 
5.13321 5.21764 5.29444 5.32592 5.35385 5.33465 5.32274 5.3416 5.37267 
5.39499 5.34796 5.25785 5.18976 5.12107 5.0394 4.91315 4.81386 4.73474 
4.6895 4.7106 4.70657 4.70467 4.71858 4.76471 4.88529 5.04495 5.17206 
5.41455 5.67089 5.76656 5.8804 6.21221 
VECTORS vectors float
0.00761151 0.138241 0.116922 -0.00251666 0.150618 0.100733 -0.00307125 0.151229 0.0997986 
-0.00228733 0.150364 0.101118 -0.00806884 0.156413 0.0911552 -0.0117821 0.159892 0.0844686 
-0.00825025 0.15659 0.0908338 -0.00924337 0.157548 0.0890647 -0.0147062 0.162405 0.0790418 
-0.0194095 0.166016 0.0700076 -0.0246088 0.169368 0.0595659 -0.033726 0.173496 0.0400132 
-0.0455491 0.174993 0.0119202 -0.0462919 0.174916 0.0100341 -0.0394517 0.174822 0.0268351 
-0.0375013 0.174489 0.0314086 -0.0401997 0.174915 0.025057 -0.0373031 0.174448 0.0318682 
-0.035929 0.17413 0.0350309 -0.0406313 0.174961 0.0240246 -0.0331913 0.173319 0.0412066 
-0.02216 0.167875 0.0645448 -0.0224339 0.16805 0.0639934 -0.0214433 0.167409 0.0659812 
-0.0106836 0.158896 0.0864704 0.00254644 0.144723 0.109033 0.00957181 0.135575 0.119863 
0.00817306 0.137487 0.117771 -0.00690713 0.155259 0.0932006 -0.0138201 0.161665 0.0807016 
-0.0145988 0.162316 0.0792438 -0.0169026 0.164158 0.0748704 -0.022637 0.168178 0.0635836 
-0.031098 0.172548 0.0458207 -0.0327963 0.173184 0.0420844 -0.0233422 0.168615 0.0621548 
-0.0159637 0.163423 0.0766637 -0.0203528 0.166675 0.0681492 -0.0285175 0.171422 0.0513852 
-0.0328885 0.173216 0.0418797 -0.0258639 0.170072 0.0569707 -0.00916715 0.157475 0.0892011 
-0.0039481 0.152179 0.0983114 -0.0107492 0.158956 0.0863514 -0.0181138 0.165075 0.0725348 
-0.0208862 0.167038 0.0670915 -0.024858 0.169511 0.0590529 -0.028881 0.171592 0.0506094 
-0.0357346 0.17408 0.0354749 -0.0408214 0.174978 0.0235683 -0.0434907 0.17509 0.0170655 
-0.0407199 0.174969 0.0238122 -0.0356537 0.174059 0.0356594 -0.0360901 0.17417 0.0346621 
-0.0446368 0.175056 0.0142151 -0.0337032 0.173488 0.0400642 -0.026961 0.170654 0.054678 
-0.0275632 0.170959 0.0534096 -0.0259888 0.17014 0.0567108 -0.022465 0.16807 0.0639307 
-0.0172942 0.164459 0.074118 -0.0113857 0.159536 0.0851933 -0.00827617 0.156615 0.0907878 
-0.0126124 0.160626 0.0829423 -0.0191186 0.165809 0.0705777 -0.0209325 0.167069 0.0669995 
-0.0197944 0.166288 0.0692513 -0.0200795 0.166487 0.0686894 -0.0250566 0.169624 0.0586433 
-0.0236215 0.168785 0.0615865 -0.0185009 0.165361 0.0717827 -0.0183144 0.165224 0.0721453 
-0.0194933 0.166076 0.0698432 -0.0211256 0.167199 0.0666151 -0.0238223 0.168906 0.061177 
-0.0214408 0.167408 0.0659863 -0.0108257 0.159027 0.0862126 -0.00658943 0.154938 0.0937561 
-0.00899484 0.15731 0.089509 -0.012283 0.160337 0.0835493 -0.0149456 0.162602 0.0785912 
-0.0178733 0.164896 0.0730004 -0.0216193 0.167525 0.0656294 -0.025998 0.170145 0.0566918 
-0.0290466 0.171668 0.0502552 -0.0316746 0.172773 0.0445588 -0.0355904 0.174042 0.0358035 
-0.0377215 0.174533 0.0308967 -0.039885 0.174878 0.0258068 -0.042022 0.175061 0.0206665 
-0.0395878 0.17484 0.0265125 -0.0379731 0.174581 0.0303104 -0.0385552 0.174685 0.0289486 
-0.0369923 0.174381 0.0325873 -0.0337308 0.173497 0.0400024 -0.0284925 0.17141 0.0514384 
-0.0237431 0.168858 0.0613385 -0.0247327 0.16944 0.0593111 -0.023796 0.16889 0.0612307 
-0.0180227 0.165008 0.0727112 -0.0156434 0.163167 0.077272 -0.0168045 0.164083 0.0750586 
-0.0171056 0.164315 0.0744808 -0.0194968 0.166078 0.0698363 -0.0199443 0.166393 0.068956 
-0.0172879 0.164454 0.0741301 -0.0162603 0.163658 0.0760989 -0.0168549 0.164122 0.074962 
-0.0194842 0.166069 0.0698611 -0.0202403 0.166598 0.0683718 -0.0191868 0.165858 0.070444 
-0.0193009 0.165939 0.0702206 -0.0242545 0.169162 0.060293 -0.0248835 0.169526 0.0590004 
-0.020791 0.166974 0.0672806 -0.0215356 0.16747 0.0657967 -0.0241797 0.169118 0.0604462 
-0.0260357 0.170166 0.0566133 -0.0271497 0.17075 0.0542812 -0.027709 0.171031 0.0531015 
-0.0291273 0.171705 0.0500824 -0.0291977 0.171737 0.0499314 -0.0281892 0.171266 0.0520837 
-0.0287157 0.171515 0.0509625 -0.0300987 0.172134 0.0479915 -0.0281174 0.171231 0.0522361 
-0.0278434 0.171098 0.0528171 -0.0307717 0.172416 0.0465317 -0.0290178 0.171655 0.0503167 
-0.0249785 0.16958 0.0588046 -0.0236299 0.16879 0.0615694 -0.024202 0.169131 0.0604006 
-0.0242248 0.169144 0.0603539 -0.0229093 0.168349 0.0630329 -0.0218806 0.167695 0.065106 
-0.0215516 0.167481 0.0657649 -0.0213198 0.167328 0.0662279 -0.0212633 0.16729 0.0663407 
-0.0219008 0.167708 0.0650654 -0.0228507 0.168312 0.0631516 -0.0221749 0.167885 0.0645147 
-0.0202752 0.166622 0.0683028 -0.0198381 0.166319 0.0691653 -0.0201087 0.166507 0.0686316 
-0.0206198 0.166858 0.0676205 -0.0221878 0.167893 0.0644888 -0.023853 0.168924 0.0611142 
-0.0242097 0.169135 0.0603849 -0.0246274 0.169379 0.0595276 -0.0258327 0.170055 0.0570356 
-0.0267581 0.170549 0.0551038 -0.0281742 0.171258 0.0521155 -0.0284569 0.171394 0.0515143 
-0.0276119 0.170983 0.0533067 -0.0279446 0.171147 0.0526028 -0.0287014 0.171509 0.0509931 
-0.0284119 0.171372 0.0516101 -0.0273123 0.170833 0.0539389 -0.0257537 0.170012 0.0571999 
-0.0243963 0.169245 0.0600022 -0.0245892 0.169357 0.0596061 -0.0251492 0.169677 0.0584522 
-0.0246975 0.169419 0.0593834 -0.0236285 0.168789 0.0615723 -0.0228973 0.168341 0.0630573 
-0.0228463 0.168309 0.0631604 -0.0230399 0.16843 0.0627685 -0.0231019 0.168468 0.0626426 
-0.0224789 0.168079 0.0639027 -0.0217232 0.167593 0.0654214 -0.0212699 0.167295 0.0663274 
-0.0210646 0.167158 0.0667365 -0.0213605 0.167355 0.0661466 -0.022558 0.168129 0.063743 
-0.0230511 0.168437 0.0627456 -0.022808 0.168286 0.0632379 -0.0237309 0.168851 0.0613634 
-0.0251462 0.169675 0.0584583 -0.0260175 0.170156 0.0566511 -0.0263336 0.170325 0.055992 
-0.0267112 0.170524 0.055202 -0.0263042 0.17031 0.0560533 -0.0254109 0.169823 0.0579109 
-0.0254153 0.169826 0.0579017 -0.0251809 0.169694 0.0583866 -0.0249051 0.169538 0.0589558 
-0.0245752 0.169349 0.0596349 -0.023764 0.168871 0.0612959 -0.0243932 0.169243 0.0600086 
-0.0249293 0.169552 0.0589061 -0.023884 0.168943 0.061051 -0.0241343 0.169091 0.0605391 
-0.02557 0.169911 0.0575811 -0.025842 0.170061 0.0570164 -0.0258682 0.170075 0.0569618 
-0.0265083 0.170418 0.0556268 -0.0265772 0.170454 0.0554827 -0.0267473 0.170543 0.0551263 
-0.0264854 0.170406 0.0556747 -0.0257174 0.169992 0.0572752 -0.0264186 0.17037 0.0558144 
-0.0268716 0.170608 0.0548656 -0.0265886 0.17046 0.0554589 -0.0273523 0.170853 0.0538547 
-0.0274466 0.170901 0.0536558 -0.0264609 0.170393 0.0557259 -0.0262162 0.170263 0.0562371 
-0.027057 0.170703 0.0544763 -0.0276676 0.171011 0.0531889 -0.0271362 0.170744 0.0543097 
-0.0260087 0.170151 0.0566696 -0.0262133 0.170261 0.056243 -0.0270217 0.170685 0.0545505 
-0.0270801 0.170715 0.0544276 -0.027067 0.170708 0.0544552 -0.0277453 0.171049 0.0530247 
-0.0273612 0.170858 0.0538359 -0.0264597 0.170392 0.0557285 -0.026062 0.17018 0.0565585 
-0.0260809 0.17019 0.0565192 -0.0257698 0.170021 0.0571664 -0.0251477 0.169676 0.0584552 
-0.0256276 0.169943 0.0574616 -0.0258189 0.170048 0.0570644 -0.0255289 0.169889 0.0576663 
-0.0252902 0.169756 0.0581606 -0.0254877 0.169866 0.0577518 -0.0255387 0.169894 0.0576461 
-0.0258718 0.170077 0.0569543 -0.0270432 0.170696 0.0545053 -0.0293197 0.171792 0.0496696 
-0.0297481 0.171982 0.0487484 -0.029755 0.171985 0.0487334 -0.0296526 0.17194 0.0489539 
-0.0287298 0.171522 0.0509324 -0.0279826 0.171166 0.052522 -0.027491 0.170923 0.053562 
-0.0274639 0.170909 0.0536193 -0.0266178 0.170475 0.0553976 -0.0259615 0.170126 0.0567676 
-0.0267367 0.170538 0.0551486 -0.0270554 0.170702 0.0544795 -0.0264903 0.170408 0.0556645 
-0.0258948 0.170089 0.0569065 -0.0265045 0.170416 0.0556347 -0.025581 0.169917 0.0575584 
-0.0246458 0.16939 0.0594897 -0.0257376 0.170004 0.0572333 -0.0265001 0.170413 0.0556441 
-0.0254617 0.169851 0.0578055 -0.0236698 0.168814 0.0614881 -0.0236223 0.168786 0.0615848 
-0.0237714 0.168875 0.0612809 -0.0234031 0.168653 0.062031 -0.0354637 0.174008 0.036092 
-0.0495188 0.174311 0.00164715 -0.0591202 0.169389 -0.0255252 -0.0634094 0.165202 -0.0390752 
-0.0678124 0.159031 -0.0543146 -0.0718669 0.150859 -0.0701151 -0.0753126 0.140731 -0.0858028 
-0.0779735 0.12882 -0.100822 -0.0794238 0.118583 -0.111666 -0.0803248 0.10765 -0.121651 
-0.0796716 0.0692796 -0.147283 -0.0764115 0.0414437 -0.159007 -0.0763412 0.0409844 -0.15916 
-0.0764483 0.0416857 -0.158926 -0.0767944 0.0440068 -0.158131 -0.0770511 0.045789 -0.157499 
-0.0770144 0.0455309 -0.157592 -0.0770653 0.0458885 -0.157463 -0.0770394 0.045706 -0.157529 
-0.0770862 0.0460367 -0.15741 -0.0773558 0.0479783 -0.156696 -0.0774668 0.0487983 -0.156388 
-0.0772381 0.0471224 -0.157014 -0.0769404 0.0450133 -0.157777 -0.0768533 0.0444108 -0.15799 
-0.076757 0.0437517 -0.15822 -0.0765145 0.0421227 -0.158779 -0.0765372 0.0422732 -0.158728 
-0.0766509 0.0430335 -0.158469 -0.0765664 0.0424676 -0.158662 -0.0766069 0.0427386 -0.15857 
-0.0768545 0.0444194 -0.157987 -0.076725 0.043534 -0.158296 -0.0765798 0.0425572 -0.158631 
-0.0769209 0.0448784 -0.157825 -0.0771115 0.046216 -0.157345 -0.0771542 0.0465198 -0.157234 
-0.0773145 0.047676 -0.156809 -0.0773743 0.0481136 -0.156645 -0.0774433 0.0486234 -0.156454 
-0.0773098 0.0476423 -0.156821 -0.0771766 0.0466805 -0.157176 -0.0771944 0.0468081 -0.157129 
-0.07713 0.0463473 -0.157297 -0.0768752 0.0445618 -0.157937 -0.0768001 0.0440459 -0.158118 
-0.0767566 0.0437487 -0.158221 -0.0766678 0.0431478 -0.158429 -0.0768812 0.0446035 -0.157922 
-0.0767916 0.0439875 -0.158138 -0.0765695 0.0424888 -0.158655 -0.076709 0.0434262 -0.158333 
-0.0768069 0.0440922 -0.158102 -0.0769772 0.0452705 -0.157685 -0.0772505 0.0472116 -0.156981 
-0.0772987 0.0475611 -0.156851 -0.0770597 0.0458493 -0.157477 -0.0770453 0.0457475 -0.157514 
-0.0771664 0.0466071 -0.157203 -0.0772244 0.0470232 -0.15705 -0.0771798 0.0467033 -0.157167 
-0.0771141 0.0462347 -0.157338 -0.0772485 0.0471971 -0.156986 -0.0772705 0.0473563 -0.156927 
-0.0770655 0.0458901 -0.157463 -0.0769138 0.0448287 -0.157842 -0.076757 0.0437515 -0.15822 
-0.0767582 0.0437597 -0.158218 -0.0770114 0.0455092 -0.1576 -0.0771727 0.0466525 -0.157186 
-0.0771042 0.0461639 -0.157364 -0.0770735 0.0459468 -0.157442 -0.0771104 0.0462079 -0.157348 
-0.0769289 0.0449338 -0.157805 -0.0767863 0.0439518 -0.158151 -0.0769173 0.0448533 -0.157834 
-0.0771725 0.0466506 -0.157187 -0.0773446 0.0478963 -0.156727 -0.0775647 0.0495316 -0.156108 
-0.0777176 0.0506982 -0.155657 -0.0776361 0.0500732 -0.1559 -0.0775419 0.0493598 -0.156174 
-0.0776152 0.0499142 -0.155961 -0.077671 0.0503394 -0.155797 -0.0776108 0.0498805 -0.155974 
-0.0775139 0.0491499 -0.156254 -0.0775611 0.0495044 -0.156119 -0.0775364 0.0493186 -0.15619 
-0.0772554 0.0472471 -0.156968 -0.0770399 0.0457098 -0.157528 -0.0769666 0.0451959 -0.157712 
-0.0768788 0.044587 -0.157928 -0.076923 0.0448926 -0.15782 -0.0769369 0.0449892 -0.157785 
-0.076682 0.0432436 -0.158396 -0.0765068 0.0420719 -0.158796 -0.0765855 0.0425953 -0.158618 
-0.0766469 0.0430069 -0.158478 -0.0766411 0.0429681 -0.158491 -0.0766924 0.0433136 -0.158372 
-0.0766976 0.0433489 -0.15836 -0.0766275 0.0428765 -0.158522 -0.0765724 0.0425078 -0.158648 
-0.0764651 0.0417961 -0.158889 -0.0761389 0.0396809 -0.159586 -0.076094 0.0393953 -0.159678 
-0.0763092 0.0407767 -0.159228 -0.0765195 0.0421558 -0.158768 -0.0765074 0.0420759 -0.158795 
-0.0764757 0.0418661 -0.158865 -0.0763733 0.0411935 -0.15909 -0.0761627 0.0398329 -0.159537 
-0.0760123 0.0388782 -0.159844 -0.0760526 0.0391328 -0.159763 -0.0760759 0.0392805 -0.159715 
-0.0759075 0.0382208 -0.160052 -0.0757677 0.0373542 -0.160323 -0.0758151 0.0376469 -0.160232 
-0.0758449 0.0378316 -0.160174 -0.0756541 0.0366583 -0.160537 -0.0756904 0.0368799 -0.160469 
-0.0755725 0.0361622 -0.160688 -0.0754993 0.03572 -0.160821 -0.0757298 0.0371211 -0.160395 
-0.0760153 0.0388971 -0.159838 -0.0760926 0.0393865 -0.159681 -0.0762414 0.0403379 -0.159373 
-0.076565 0.0424582 -0.158665 -0.0765978 0.0426773 -0.15859 -0.0765345 0.0422557 -0.158734 
-0.0765015 0.0420366 -0.158808 -0.0763387 0.0409681 -0.159165 -0.0762447 0.0403595 -0.159365 
-0.0764103 0.041436 -0.15901 -0.0767013 0.0433736 -0.158351 -0.0767338 0.0435937 -0.158275 
-0.0765347 0.042257 -0.158733 -0.0764737 0.0418528 -0.15887 -0.0765804 0.0425612 -0.15863 
-0.0765209 0.0421656 -0.158764 -0.0762725 0.0405391 -0.159307 -0.0763775 0.0412211 -0.159081 
-0.0765586 0.0424158 -0.15868 -0.0764555 0.041733 -0.15891 -0.076366 0.0411464 -0.159106 
-0.0763571 0.0410883 -0.159125 -0.0762296 0.0402619 -0.159397 -0.0759474 0.0384704 -0.159974 
-0.0757509 0.037251 -0.160355 -0.0757612 0.0373143 -0.160335 -0.0756855 0.0368497 -0.160478 
-0.0758267 0.0377187 -0.16021 -0.0760484 0.0391062 -0.159771 -0.0761291 0.0396186 -0.159606 
-0.0763091 0.0407756 -0.159229 -0.0763395 0.0409734 -0.159163 -0.0763819 0.04125 -0.159072 
-0.0766671 0.0431427 -0.158431 -0.0768532 0.04441 -0.15799 -0.0767013 0.0433735 -0.158351 
-0.0765267 0.0422038 -0.158751 -0.0766643 0.0431236 -0.158438 -0.076681 0.0432366 -0.158399 
-0.076414 0.0414603 -0.159001 -0.0761099 0.0394963 -0.159646 -0.0759078 0.0382227 -0.160052 
-0.0758529 0.0378814 -0.160159 -0.0757942 0.037518 -0.160272 -0.0758943 0.0381387 -0.160078 
-0.076004 0.0388256 -0.159861 -0.0757505 0.0372484 -0.160356 -0.0754311 0.0353111 -0.160943 
-0.0757653 0.0373397 -0.160327 -0.0761365 0.0396654 -0.159591 -0.0761018 0.0394447 -0.159663 
-0.0762991 0.0407107 -0.15925 -0.0764742 0.0418564 -0.158869 -0.0764677 0.0418135 -0.158883 
-0.0766232 0.0428477 -0.158532 -0.0766121 0.0427732 -0.158558 -0.0763212 0.0408547 -0.159203 
-0.0761637 0.0398394 -0.159535 -0.0762304 0.0402669 -0.159396 -0.0762346 0.0402941 -0.159387 
-0.0763714 0.0411815 -0.159094 -0.0765581 0.0424127 -0.158681 -0.0714008 0.0142681 -0.165945 
-0.059387 -0.0309108 -0.168396 -0.0544506 -0.0456679 -0.1667 -0.0490881 -0.0601355 -0.163748 
-0.0429635 -0.0750645 -0.159245 -0.0363575 -0.0895908 -0.153268 -0.0292246 -0.103711 -0.145703 
-0.0225801 -0.115573 -0.13774 -0.0161207 -0.126016 -0.129226 -0.00945482 -0.135737 -0.119689 
0.0101918 -0.158441 -0.0873602 0.0220141 -0.167782 -0.064838 0.0229478 -0.168373 -0.062955 
0.0229069 -0.168347 -0.0630378 0.022104 -0.16784 -0.0646573 0.022128 -0.167855 -0.064609 
0.0227143 -0.168227 -0.0634273 0.0237278 -0.168849 -0.0613697 0.0236466 -0.1688 -0.0615354 
0.0231879 -0.168521 -0.0624683 0.0232724 -0.168573 -0.0622966 0.0230777 -0.168453 -0.0626918 
0.0235363 -0.168734 -0.0617601 0.0246786 -0.169408 -0.0594222 0.024403 -0.169249 -0.0599884 
0.0234722 -0.168695 -0.0618905 0.0241295 -0.169088 -0.060549 0.0246574 -0.169396 -0.0594659 